       #
       # Generated by the Wannier90 code http://www.wannier.org
       # On 22May2018 at 01:25:05 
       #
CRYSTAL
PRIMVEC
   1.4674613  -0.8472392   2.3963568
   0.0000000   1.6944783   2.3963568
  -1.4674613  -0.8472392   2.3963568
CONVVEC
   1.4674613  -0.8472392   2.3963568
   0.0000000   1.6944783   2.3963568
  -1.4674613  -0.8472392   2.3963568
PRIMCOORD
     2  1
Ni      0.0000000   0.0000000   0.0000000
O       0.0000000   0.0000000   3.5945353


BEGIN_BLOCK_DATAGRID_3D
3D_field
BEGIN_DATAGRID_3D_UNKNOWN
    50    50    50
    0.000000    0.000000   -7.476633
   2.8762241  -1.6605888   4.6968594
   0.0000000   3.3211775   4.6968594
  -2.8762241  -1.6605888   4.6968594
 -0.26866E-04 -0.26520E-04 -0.14735E-04  0.56787E-05  0.20283E-04  0.16036E-04
 -0.38116E-05 -0.22948E-04 -0.29822E-04 -0.27456E-04 -0.24498E-04 -0.21798E-04
 -0.12081E-04  0.96912E-05  0.40786E-04  0.75839E-04  0.11417E-03  0.16141E-03
  0.22739E-03  0.32511E-03  0.46877E-03  0.66363E-03  0.88699E-03  0.10752E-02
  0.11408E-02  0.10261E-02  0.75615E-03  0.43821E-03  0.19346E-03  0.76491E-04
  0.53922E-04  0.53197E-04  0.25629E-04 -0.31873E-04 -0.97644E-04 -0.15291E-03
 -0.19187E-03 -0.21734E-03 -0.23358E-03 -0.24195E-03 -0.24024E-03 -0.22550E-03
 -0.19665E-03 -0.15211E-03 -0.84473E-04  0.16792E-04  0.14598E-03  0.25689E-03
  0.26649E-03  0.10887E-03 -0.26366E-04 -0.20919E-04 -0.35080E-05  0.14906E-04
  0.17355E-04  0.45120E-06 -0.21028E-04 -0.31953E-04 -0.32854E-04 -0.33290E-04
 -0.34825E-04 -0.28827E-04 -0.96411E-05  0.18354E-04  0.48876E-04  0.82994E-04
  0.12758E-03  0.18988E-03  0.27881E-03  0.40892E-03  0.59467E-03  0.83046E-03
  0.10679E-02  0.12148E-02  0.11757E-02  0.92216E-03  0.53465E-03  0.16476E-03
 -0.64128E-04 -0.13250E-03 -0.11192E-03 -0.89081E-04 -0.10513E-03 -0.15241E-03
 -0.20580E-03 -0.24781E-03 -0.27388E-03 -0.28692E-03 -0.29014E-03 -0.28246E-03
 -0.25974E-03 -0.21992E-03 -0.16377E-03 -0.88014E-04  0.17716E-04  0.15649E-03
  0.29680E-03  0.36195E-03  0.26649E-03 -0.90738E-05 -0.14919E-04 -0.39082E-05
  0.11100E-04  0.15733E-04  0.24366E-05 -0.19283E-04 -0.34193E-04 -0.39414E-04
 -0.43443E-04 -0.48933E-04 -0.46720E-04 -0.29796E-04 -0.39578E-05  0.21863E-04
  0.49755E-04  0.90019E-04  0.14860E-03  0.22647E-03  0.33163E-03  0.48260E-03
  0.69051E-03  0.92971E-03  0.11218E-02  0.11575E-02  0.96260E-03  0.56706E-03
  0.11257E-03 -0.23088E-03 -0.37615E-03 -0.36019E-03 -0.28705E-03 -0.24006E-03
 -0.24209E-03 -0.27421E-03 -0.31031E-03 -0.33507E-03 -0.34496E-03 -0.34227E-03
 -0.32785E-03 -0.29814E-03 -0.24964E-03 -0.18364E-03 -0.10181E-03  0.17071E-05
  0.13421E-03  0.27963E-03  0.37767E-03  0.34047E-03  0.11482E-03 -0.25081E-03
  0.46451E-05  0.13649E-04  0.14920E-04  0.22098E-05 -0.19013E-04 -0.36562E-04
 -0.45799E-04 -0.52934E-04 -0.61501E-04 -0.63244E-04 -0.49415E-04 -0.25177E-04
 -0.27115E-05  0.17830E-04  0.49931E-04  0.10256E-03  0.17131E-03  0.25307E-03
  0.36166E-03  0.51809E-03  0.71918E-03  0.91124E-03  0.99487E-03  0.87333E-03
  0.52652E-03  0.53649E-04 -0.36990E-03 -0.60391E-03 -0.62939E-03 -0.53503E-03
 -0.43025E-03 -0.37365E-03 -0.36581E-03 -0.38173E-03 -0.39843E-03 -0.40401E-03
 -0.39612E-03 -0.37579E-03 -0.34114E-03 -0.28768E-03 -0.21460E-03 -0.12575E-03
 -0.21575E-04  0.10340E-03  0.24395E-03  0.35953E-03  0.37322E-03  0.21437E-03
 -0.11485E-03 -0.50380E-03  0.18263E-04  0.15250E-04  0.90771E-06 -0.19673E-04
 -0.37907E-04 -0.49817E-04 -0.59126E-04 -0.69185E-04 -0.74184E-04 -0.65182E-04
 -0.44414E-04 -0.24448E-04 -0.97390E-05  0.12176E-04  0.54628E-04  0.11439E-03
  0.18011E-03  0.25486E-03  0.35892E-03  0.50375E-03  0.66125E-03  0.75647E-03
  0.69666E-03  0.43083E-03  0.56431E-05 -0.43680E-03 -0.73955E-03 -0.83157E-03
 -0.75995E-03 -0.63117E-03 -0.52836E-03 -0.47681E-03 -0.46274E-03 -0.46328E-03
 -0.46138E-03 -0.44881E-03 -0.42415E-03 -0.38669E-03 -0.33223E-03 -0.25669E-03
 -0.16159E-03 -0.51074E-04  0.74805E-04  0.21426E-03  0.34351E-03  0.40433E-03
  0.32511E-03  0.74400E-04 -0.28960E-03 -0.62243E-03  0.13515E-04 -0.19141E-05
 -0.20932E-04 -0.37334E-04 -0.49996E-04 -0.61182E-04 -0.71976E-04 -0.78484E-04
 -0.74457E-04 -0.60037E-04 -0.44181E-04 -0.33030E-04 -0.18809E-04  0.12050E-04
  0.60754E-04  0.11522E-03  0.16963E-03  0.23615E-03  0.32954E-03  0.43958E-03
  0.51842E-03  0.49480E-03  0.31246E-03 -0.22513E-04 -0.42028E-03 -0.74580E-03
 -0.90191E-03 -0.88772E-03 -0.78011E-03 -0.66470E-03 -0.58557E-03 -0.54494E-03
 -0.52738E-03 -0.51649E-03 -0.50037E-03 -0.47348E-03 -0.43451E-03 -0.38064E-03
 -0.30616E-03 -0.20809E-03 -0.89281E-04  0.45978E-04  0.19376E-03  0.33992E-03
  0.44582E-03  0.45211E-03  0.31184E-03  0.37058E-04 -0.27909E-03 -0.49595E-03
 -0.59598E-05 -0.22843E-04 -0.35299E-04 -0.46209E-04 -0.59184E-04 -0.71997E-04
 -0.79257E-04 -0.78028E-04 -0.70252E-04 -0.61127E-04 -0.53617E-04 -0.43067E-04
 -0.20355E-04  0.17034E-04  0.60912E-04  0.10359E-03  0.14956E-03  0.20911E-03
  0.27905E-03  0.33146E-03  0.32064E-03  0.20362E-03 -0.31710E-04 -0.34317E-03
 -0.64043E-03 -0.83258E-03 -0.88476E-03 -0.83225E-03 -0.74156E-03 -0.66216E-03
 -0.61043E-03 -0.58201E-03 -0.56591E-03 -0.55009E-03 -0.52514E-03 -0.48692E-03
 -0.43342E-03 -0.36018E-03 -0.26178E-03 -0.13725E-03  0.91812E-05  0.17111E-03
  0.33768E-03  0.48474E-03  0.57081E-03  0.55109E-03  0.40887E-03  0.18504E-03
 -0.23909E-04 -0.11225E-03 -0.24056E-04 -0.32753E-04 -0.39743E-04 -0.52942E-04
 -0.69198E-04 -0.78663E-04 -0.78240E-04 -0.73978E-04 -0.71667E-04 -0.69862E-04
 -0.62075E-04 -0.43231E-04 -0.14181E-04  0.19175E-04  0.52324E-04  0.87615E-04
  0.13014E-03  0.17635E-03  0.20822E-03  0.19910E-03  0.12446E-03 -0.27462E-04
 -0.24347E-03 -0.47837E-03 -0.66933E-03 -0.77126E-03 -0.78342E-03 -0.74151E-03
 -0.68648E-03 -0.64228E-03 -0.61524E-03 -0.60162E-03 -0.59195E-03 -0.57479E-03
 -0.54209E-03 -0.49063E-03 -0.41795E-03 -0.31989E-03 -0.19352E-03 -0.40502E-04
  0.13340E-03  0.31888E-03  0.49999E-03  0.65056E-03  0.73740E-03  0.73492E-03
  0.64693E-03  0.51967E-03  0.42689E-03  0.42741E-03 -0.29831E-04 -0.32771E-04
 -0.43259E-04 -0.61414E-04 -0.74420E-04 -0.75007E-04 -0.70880E-04 -0.72110E-04
 -0.76656E-04 -0.73851E-04 -0.58215E-04 -0.34478E-04 -0.10081E-04  0.13455E-04
  0.40752E-04  0.75106E-04  0.11089E-03  0.13336E-03  0.12607E-03  0.77940E-04
 -0.15613E-04 -0.15229E-03 -0.31714E-03 -0.47898E-03 -0.60157E-03 -0.66477E-03
 -0.67535E-03 -0.65734E-03 -0.63441E-03 -0.61998E-03 -0.61658E-03 -0.61796E-03
 -0.61279E-03 -0.59053E-03 -0.54560E-03 -0.47602E-03 -0.37994E-03 -0.25541E-03
 -0.10248E-03  0.75645E-04  0.27256E-03  0.47747E-03  0.67380E-03  0.83975E-03
  0.95292E-03  0.10002E-02  0.99036E-03  0.95691E-03  0.94149E-03  0.96467E-03
 -0.26785E-04 -0.32811E-04 -0.48712E-04 -0.63455E-04 -0.65931E-04 -0.61211E-04
 -0.62467E-04 -0.71104E-04 -0.74690E-04 -0.64321E-04 -0.45350E-04 -0.27968E-04
 -0.13296E-04  0.62607E-05  0.35030E-04  0.66281E-04  0.86216E-04  0.83490E-04
  0.54139E-04 -0.14320E-05 -0.83330E-04 -0.19058E-03 -0.31353E-03 -0.43105E-03
 -0.51995E-03 -0.56961E-03 -0.58747E-03 -0.59129E-03 -0.59662E-03 -0.60919E-03
 -0.62452E-03 -0.63224E-03 -0.62205E-03 -0.58766E-03 -0.52657E-03 -0.43765E-03
 -0.31999E-03 -0.17347E-03  0.65641E-06  0.19928E-03  0.41602E-03  0.64011E-03
  0.85688E-03  0.10494E-02  0.12010E-02  0.13017E-02  0.13547E-02  0.13757E-02
  0.13806E-02  0.13708E-02 -0.23682E-04 -0.34483E-04 -0.46952E-04 -0.50357E-04
 -0.46098E-04 -0.46455E-04 -0.56211E-04 -0.64674E-04 -0.60422E-04 -0.46681E-04
 -0.34948E-04 -0.27570E-04 -0.15146E-04  0.87517E-05  0.37079E-04  0.55890E-04
  0.57023E-04  0.41173E-04  0.10831E-04 -0.35990E-04 -0.10396E-03 -0.19288E-03
 -0.29210E-03 -0.38336E-03 -0.45147E-03 -0.49418E-03 -0.52227E-03 -0.54936E-03
 -0.58105E-03 -0.61221E-03 -0.63255E-03 -0.63353E-03 -0.61092E-03 -0.56295E-03
 -0.48797E-03 -0.38417E-03 -0.25048E-03 -0.86821E-04  0.10566E-03  0.32356E-03
  0.55993E-03  0.80422E-03  0.10432E-02  0.12612E-02  0.14424E-02  0.15745E-02
  0.16535E-02  0.16822E-02  0.16633E-02  0.15954E-02 -0.21335E-04 -0.29158E-04
 -0.31041E-04 -0.27442E-04 -0.27715E-04 -0.37097E-04 -0.47588E-04 -0.47773E-04
 -0.38537E-04 -0.31027E-04 -0.29217E-04 -0.23308E-04 -0.42926E-05  0.21623E-04
  0.39282E-04  0.41515E-04  0.33166E-04  0.19296E-04 -0.42667E-05 -0.46555E-04
 -0.11090E-03 -0.19021E-03 -0.27073E-03 -0.33993E-03 -0.39379E-03 -0.43862E-03
 -0.48436E-03 -0.53442E-03 -0.58171E-03 -0.61486E-03 -0.62674E-03 -0.61627E-03
 -0.58389E-03 -0.52775E-03 -0.44413E-03 -0.32960E-03 -0.18215E-03 -0.16389E-05
  0.20955E-03  0.44607E-03  0.69991E-03  0.96048E-03  0.12140E-02  0.14438E-02
  0.16326E-02  0.17663E-02  0.18366E-02  0.18403E-02  0.17775E-02  0.16523E-02
 -0.12516E-04 -0.11262E-04 -0.68845E-05 -0.70100E-05 -0.15320E-04 -0.25363E-04
 -0.27398E-04 -0.21142E-04 -0.16368E-04 -0.18368E-04 -0.18622E-04 -0.60070E-05
  0.16211E-04  0.32636E-04  0.34682E-04  0.29061E-04  0.24498E-04  0.16825E-04
 -0.70457E-05 -0.53622E-04 -0.11630E-03 -0.18260E-03 -0.24381E-03 -0.29869E-03
 -0.35218E-03 -0.41050E-03 -0.47407E-03 -0.53428E-03 -0.57912E-03 -0.60230E-03
 -0.60515E-03 -0.59012E-03 -0.55514E-03 -0.49466E-03 -0.40322E-03 -0.27699E-03
 -0.11428E-03  0.83159E-04  0.31001E-03  0.55922E-03  0.82268E-03  0.10892E-02
  0.13429E-02  0.15656E-02  0.17401E-02  0.18522E-02  0.18919E-02  0.18558E-02
  0.17478E-02  0.15785E-02  0.77450E-05  0.14787E-04  0.16563E-04  0.10769E-04
  0.35506E-05  0.23362E-05  0.68852E-05  0.93034E-05  0.45599E-05 -0.10545E-05
  0.33965E-05  0.18307E-04  0.31172E-04  0.32428E-04  0.27592E-04  0.27405E-04
  0.29774E-04  0.19736E-04 -0.12723E-04 -0.61857E-04 -0.11476E-03 -0.16506E-03
 -0.21556E-03 -0.27195E-03 -0.33706E-03 -0.40787E-03 -0.47507E-03 -0.52762E-03
 -0.56057E-03 -0.57693E-03 -0.58015E-03 -0.56704E-03 -0.52962E-03 -0.46128E-03
 -0.35837E-03 -0.21875E-03 -0.42879E-04  0.16455E-03  0.39668E-03  0.64734E-03
  0.90877E-03  0.11675E-02  0.14054E-02  0.16045E-02  0.17493E-02  0.18260E-02
  0.18256E-02  0.17484E-02  0.16041E-02  0.14068E-02  0.36706E-04  0.42675E-04
  0.41285E-04  0.39212E-04  0.42033E-04  0.47000E-04  0.46887E-04  0.38945E-04
  0.28904E-04  0.25421E-04  0.30049E-04  0.34738E-04  0.32223E-04  0.26668E-04
  0.28040E-04  0.35740E-04  0.35069E-04  0.13633E-04 -0.24407E-04 -0.65530E-04
 -0.10415E-03 -0.14687E-03 -0.20179E-03 -0.26932E-03 -0.34250E-03 -0.41126E-03
 -0.46673E-03 -0.50605E-03 -0.53342E-03 -0.55295E-03 -0.56025E-03 -0.54426E-03
 -0.49662E-03 -0.41540E-03 -0.30082E-03 -0.15290E-03  0.25728E-04  0.22937E-03
  0.45322E-03  0.69325E-03  0.94005E-03  0.11767E-02  0.13845E-02  0.15483E-02
  0.16544E-02  0.16899E-02  0.16492E-02  0.15388E-02  0.13721E-02  0.11632E-02
  0.68918E-04  0.73253E-04  0.77251E-04  0.86915E-04  0.96562E-04  0.96290E-04
  0.84805E-04  0.70230E-04  0.60259E-04  0.54723E-04  0.47761E-04  0.36403E-04
  0.26269E-04  0.26189E-04  0.35413E-04  0.39892E-04  0.26126E-04 -0.34552E-05
 -0.34977E-04 -0.62209E-04 -0.94307E-04 -0.14311E-03 -0.20883E-03 -0.28087E-03
 -0.34770E-03 -0.40284E-03 -0.44576E-03 -0.48089E-03 -0.51223E-03 -0.53537E-03
 -0.53748E-03 -0.50775E-03 -0.44517E-03 -0.35393E-03 -0.23605E-03 -0.92173E-04
  0.74596E-04  0.26080E-03  0.46528E-03  0.68390E-03  0.90327E-03  0.11047E-02
  0.12726E-02  0.13951E-02  0.14594E-02  0.14547E-02  0.13814E-02  0.12512E-02
  0.10776E-02  0.87287E-03  0.10348E-03  0.11305E-03  0.13004E-03  0.14914E-03
  0.15551E-03  0.14423E-03  0.12519E-03  0.10856E-03  0.93454E-04  0.73490E-04
  0.48688E-04  0.28324E-04  0.22104E-04  0.28880E-04  0.34912E-04  0.26188E-04
  0.31102E-05 -0.21145E-04 -0.38900E-04 -0.59550E-04 -0.98421E-04 -0.15796E-03
 -0.22564E-03 -0.28785E-03 -0.34000E-03 -0.38454E-03 -0.42543E-03 -0.46447E-03
 -0.49714E-03 -0.51149E-03 -0.49594E-03 -0.44910E-03 -0.37824E-03 -0.28896E-03
 -0.18139E-03 -0.55335E-04  0.87579E-04  0.24752E-03  0.42488E-03  0.61219E-03
  0.79297E-03  0.95102E-03  0.10758E-02  0.11568E-02  0.11815E-02  0.11437E-02
  0.10504E-02  0.91539E-03  0.74978E-03  0.56441E-03  0.14585E-03  0.16911E-03
  0.20032E-03  0.22236E-03  0.22146E-03  0.20262E-03  0.17827E-03  0.15063E-03
  0.11413E-03  0.70707E-04  0.33694E-04  0.15593E-04  0.15493E-04  0.19648E-04
  0.13985E-04 -0.31019E-05 -0.20946E-04 -0.31561E-04 -0.42646E-04 -0.70687E-04
 -0.12126E-03 -0.18211E-03 -0.23750E-03 -0.28347E-03 -0.32609E-03 -0.37021E-03
 -0.41411E-03 -0.45072E-03 -0.46964E-03 -0.46155E-03 -0.42574E-03 -0.37125E-03
 -0.30735E-03 -0.23521E-03 -0.15120E-03 -0.53548E-04  0.58653E-04  0.18782E-03
  0.33230E-03  0.48064E-03  0.61718E-03  0.73122E-03  0.81535E-03  0.85855E-03
  0.85012E-03  0.79064E-03  0.69198E-03  0.56623E-03  0.42145E-03  0.26847E-03
  0.20576E-03  0.24990E-03  0.29523E-03  0.31920E-03  0.31355E-03  0.28558E-03
  0.24088E-03  0.17890E-03  0.10638E-03  0.42737E-04  0.53605E-05 -0.60405E-05
 -0.68243E-05 -0.11723E-04 -0.23388E-04 -0.34236E-04 -0.38439E-04 -0.42422E-04
 -0.61263E-04 -0.10228E-03 -0.15522E-03 -0.20313E-03 -0.24077E-03 -0.27679E-03
 -0.31911E-03 -0.36411E-03 -0.40014E-03 -0.41599E-03 -0.40574E-03 -0.37192E-03
 -0.32596E-03 -0.28086E-03 -0.24054E-03 -0.19893E-03 -0.14854E-03 -0.85339E-04
 -0.62236E-05  0.90420E-04  0.19864E-03  0.30517E-03  0.39851E-03  0.47275E-03
  0.52092E-03  0.53216E-03  0.50099E-03  0.43436E-03  0.34445E-03  0.23920E-03
  0.12502E-03  0.13564E-04  0.29572E-03  0.36885E-03  0.43177E-03  0.45929E-03
  0.44266E-03  0.38337E-03  0.28635E-03  0.16805E-03  0.60017E-04 -0.96809E-05
 -0.38349E-04 -0.45843E-04 -0.51644E-04 -0.59755E-04 -0.63891E-04 -0.61116E-04
 -0.58852E-04 -0.70272E-04 -0.10210E-03 -0.14628E-03 -0.18673E-03 -0.21636E-03
 -0.24351E-03 -0.27891E-03 -0.31982E-03 -0.35084E-03 -0.35737E-03 -0.33530E-03
 -0.29182E-03 -0.24239E-03 -0.20430E-03 -0.18619E-03 -0.18258E-03 -0.18012E-03
 -0.16779E-03 -0.13940E-03 -0.91722E-04 -0.26995E-04  0.44685E-04  0.11120E-03
  0.16597E-03  0.20570E-03  0.22360E-03  0.21218E-03  0.17234E-03  0.11318E-03
  0.42751E-04 -0.34745E-04 -0.11209E-03 -0.17667E-03  0.42933E-03  0.53977E-03
  0.62100E-03  0.64066E-03  0.58330E-03  0.45154E-03  0.27204E-03  0.95471E-04
 -0.28878E-04 -0.86797E-04 -0.10258E-03 -0.10764E-03 -0.11278E-03 -0.11184E-03
 -0.10212E-03 -0.92999E-04 -0.97567E-04 -0.12072E-03 -0.15493E-03 -0.18662E-03
 -0.20881E-03 -0.22795E-03 -0.25481E-03 -0.28800E-03 -0.31045E-03 -0.30377E-03
 -0.26344E-03 -0.20104E-03 -0.13712E-03 -0.93106E-04 -0.82618E-04 -0.10407E-03
 -0.14209E-03 -0.17813E-03 -0.19933E-03 -0.19953E-03 -0.17851E-03 -0.14339E-03
 -0.10598E-03 -0.74930E-04 -0.52643E-04 -0.40882E-04 -0.44348E-04 -0.65451E-04
 -0.99938E-04 -0.14157E-03 -0.18734E-03 -0.23360E-03 -0.27033E-03 -0.28459E-03
  0.61345E-03  0.76008E-03  0.84211E-03  0.81592E-03  0.66718E-03  0.42422E-03
  0.15806E-03 -0.49846E-04 -0.15870E-03 -0.18878E-03 -0.18811E-03 -0.18505E-03
 -0.17816E-03 -0.16178E-03 -0.14469E-03 -0.14168E-03 -0.15697E-03 -0.18144E-03
 -0.20274E-03 -0.21616E-03 -0.22788E-03 -0.24710E-03 -0.27215E-03 -0.28516E-03
 -0.26466E-03 -0.20449E-03 -0.11971E-03 -0.36673E-04  0.19682E-04  0.33568E-04
  0.31936E-05 -0.58149E-04 -0.12889E-03 -0.19009E-03 -0.23115E-03 -0.24936E-03
 -0.24895E-03 -0.23976E-03 -0.23169E-03 -0.22877E-03 -0.23036E-03 -0.23680E-03
 -0.24980E-03 -0.26847E-03 -0.28942E-03 -0.31085E-03 -0.33167E-03 -0.34566E-03
 -0.34042E-03 -0.30454E-03  0.83185E-03  0.99000E-03  0.10264E-02  0.89476E-03
  0.60807E-03  0.24809E-03 -0.68043E-04 -0.25690E-03 -0.31697E-03 -0.30784E-03
 -0.28542E-03 -0.26483E-03 -0.23924E-03 -0.21233E-03 -0.19956E-03 -0.20719E-03
 -0.22437E-03 -0.23658E-03 -0.24018E-03 -0.24319E-03 -0.25471E-03 -0.27222E-03
 -0.27697E-03 -0.24501E-03 -0.16775E-03 -0.62410E-04  0.38154E-04  0.10462E-03
  0.12210E-03  0.90708E-04  0.22838E-04 -0.61307E-04 -0.14171E-03 -0.20568E-03
 -0.24911E-03 -0.27423E-03 -0.28781E-03 -0.29831E-03 -0.31092E-03 -0.32544E-03
 -0.33979E-03 -0.35342E-03 -0.36619E-03 -0.37667E-03 -0.38385E-03 -0.38800E-03
 -0.38668E-03 -0.37116E-03 -0.32945E-03 -0.25362E-03  0.10309E-02  0.11473E-02
  0.10727E-02  0.78475E-03  0.35494E-03 -0.74248E-04 -0.36903E-03 -0.48492E-03
 -0.47542E-03 -0.42428E-03 -0.37675E-03 -0.33451E-03 -0.29459E-03 -0.26889E-03
 -0.26687E-03 -0.27875E-03 -0.28607E-03 -0.28213E-03 -0.27591E-03 -0.27848E-03
 -0.28805E-03 -0.28569E-03 -0.24568E-03 -0.15629E-03 -0.34646E-04  0.80294E-04
  0.15217E-03  0.16614E-03  0.12913E-03  0.59303E-04 -0.22764E-04 -0.99623E-04
 -0.16117E-03 -0.20562E-03 -0.23646E-03 -0.25903E-03 -0.27884E-03 -0.29968E-03
 -0.32163E-03 -0.34220E-03 -0.35944E-03 -0.37287E-03 -0.38177E-03 -0.38518E-03
 -0.38334E-03 -0.37628E-03 -0.36018E-03 -0.32644E-03 -0.26540E-03 -0.17207E-03
  0.11291E-02  0.11390E-02  0.90423E-03  0.45919E-03 -0.54389E-04 -0.46163E-03
 -0.66108E-03 -0.67471E-03 -0.59911E-03 -0.51501E-03 -0.44655E-03 -0.38961E-03
 -0.34869E-03 -0.33393E-03 -0.33947E-03 -0.34481E-03 -0.33748E-03 -0.32414E-03
 -0.31785E-03 -0.31937E-03 -0.31100E-03 -0.26628E-03 -0.17004E-03 -0.36526E-04
  0.91863E-04  0.16964E-03  0.17675E-03  0.12572E-03  0.46254E-04 -0.33458E-04
 -0.95796E-04 -0.13500E-03 -0.15517E-03 -0.16553E-03 -0.17469E-03 -0.18754E-03
 -0.20536E-03 -0.22653E-03 -0.24779E-03 -0.26647E-03 -0.28170E-03 -0.29315E-03
 -0.29983E-03 -0.30112E-03 -0.29767E-03 -0.28962E-03 -0.27384E-03 -0.24307E-03
 -0.18809E-03 -0.10336E-03  0.10619E-02  0.92458E-03  0.53618E-03  0.25327E-05
 -0.48966E-03 -0.78632E-03 -0.85622E-03 -0.78119E-03 -0.66674E-03 -0.56814E-03
 -0.49160E-03 -0.43569E-03 -0.40725E-03 -0.40418E-03 -0.40724E-03 -0.39887E-03
 -0.38105E-03 -0.36749E-03 -0.36242E-03 -0.35055E-03 -0.30532E-03 -0.20802E-03
 -0.67293E-04  0.75521E-04  0.16673E-03  0.17496E-03  0.11040E-03  0.13007E-04
 -0.75066E-04 -0.12830E-03 -0.14117E-03 -0.12331E-03 -0.92160E-04 -0.64365E-04
 -0.49329E-04 -0.48286E-04 -0.57382E-04 -0.71293E-04 -0.85978E-04 -0.99944E-04
 -0.11318E-03 -0.12512E-03 -0.13454E-03 -0.14134E-03 -0.14726E-03 -0.15396E-03
 -0.15944E-03 -0.15530E-03 -0.12831E-03 -0.68746E-04  0.83413E-03  0.56314E-03
  0.92059E-04 -0.42188E-03 -0.79920E-03 -0.95116E-03 -0.91675E-03 -0.80022E-03
 -0.68240E-03 -0.58941E-03 -0.52162E-03 -0.48203E-03 -0.47033E-03 -0.47023E-03
 -0.46133E-03 -0.44042E-03 -0.42071E-03 -0.41044E-03 -0.39807E-03 -0.35758E-03
 -0.26654E-03 -0.12570E-03  0.30311E-04  0.14444E-03  0.17117E-03  0.10794E-03
 -0.43779E-05 -0.11005E-03 -0.16857E-03 -0.16650E-03 -0.11388E-03 -0.34711E-04
  0.44444E-04  0.10521E-03  0.14203E-03  0.15898E-03  0.16343E-03  0.16119E-03
  0.15476E-03  0.14415E-03  0.12918E-03  0.11090E-03  0.90501E-04  0.67130E-04
  0.37445E-04 -0.15674E-05 -0.46834E-04 -0.84686E-04 -0.94482E-04 -0.61359E-04
  0.53084E-03  0.19013E-03 -0.26567E-03 -0.67332E-03 -0.90636E-03 -0.94802E-03
 -0.87173E-03 -0.76340E-03 -0.66786E-03 -0.59535E-03 -0.54947E-03 -0.53162E-03
 -0.52922E-03 -0.52106E-03 -0.49887E-03 -0.47387E-03 -0.45829E-03 -0.44608E-03
 -0.41376E-03 -0.33639E-03 -0.20598E-03 -0.45046E-04  0.94474E-04  0.15667E-03
  0.11903E-03  0.97841E-05 -0.11077E-03 -0.18604E-03 -0.18700E-03 -0.11582E-03
  0.24917E-05  0.13346E-03  0.24806E-03  0.33278E-03  0.38890E-03  0.42425E-03
  0.44567E-03  0.45616E-03  0.45570E-03  0.44342E-03  0.41956E-03  0.38565E-03
  0.34292E-03  0.29002E-03  0.22282E-03  0.13870E-03  0.44833E-04 -0.37102E-04
 -0.78698E-04 -0.62028E-04  0.26447E-03 -0.69758E-04 -0.44061E-03 -0.72009E-03
 -0.84645E-03 -0.84542E-03 -0.78303E-03 -0.70960E-03 -0.64592E-03 -0.60101E-03
 -0.58049E-03 -0.57733E-03 -0.57199E-03 -0.55183E-03 -0.52411E-03 -0.50326E-03
 -0.48943E-03 -0.46422E-03 -0.40371E-03 -0.29403E-03 -0.14372E-03  0.97602E-05
  0.11114E-03  0.11980E-03  0.40385E-04 -0.77319E-04 -0.16857E-03 -0.18654E-03
 -0.11757E-03  0.20774E-04  0.19176E-03  0.35738E-03  0.49435E-03  0.59826E-03
  0.67540E-03  0.73217E-03  0.77076E-03  0.79030E-03  0.78926E-03  0.76699E-03
  0.72437E-03  0.66359E-03  0.58670E-03  0.49317E-03  0.37957E-03  0.24577E-03
  0.10529E-03 -0.11738E-04 -0.71668E-04 -0.57914E-04  0.10119E-03 -0.17892E-03
 -0.45091E-03 -0.63621E-03 -0.71738E-03 -0.72563E-03 -0.69972E-03 -0.66325E-03
 -0.63031E-03 -0.61224E-03 -0.60968E-03 -0.60804E-03 -0.59258E-03 -0.56564E-03
 -0.54124E-03 -0.52438E-03 -0.50247E-03 -0.45578E-03 -0.37046E-03 -0.24576E-03
 -0.10084E-03  0.23209E-04  0.80357E-04  0.51447E-04 -0.37608E-04 -0.12925E-03
 -0.16590E-03 -0.11532E-03  0.20621E-04  0.21174E-03  0.41646E-03  0.60244E-03
  0.75734E-03  0.88349E-03  0.98531E-03  0.10628E-02  0.11129E-02  0.11329E-02
  0.11219E-02  0.10797E-02  0.10078E-02  0.90944E-03  0.78884E-03  0.64759E-03
  0.48461E-03  0.30432E-03  0.12770E-03 -0.86673E-05 -0.71142E-04 -0.50825E-04
  0.31142E-04 -0.18752E-03 -0.38630E-03 -0.52508E-03 -0.60235E-03 -0.63550E-03
 -0.64090E-03 -0.63228E-03 -0.62427E-03 -0.62496E-03 -0.62714E-03 -0.61698E-03
 -0.59257E-03 -0.56613E-03 -0.54613E-03 -0.52475E-03 -0.48616E-03 -0.42020E-03
 -0.32544E-03 -0.20878E-03 -0.91023E-04 -0.69892E-05  0.13447E-04 -0.29441E-04
 -0.99281E-04 -0.14242E-03 -0.11454E-03  0.12215E-05  0.18983E-03  0.41489E-03
  0.63940E-03  0.84270E-03  0.10208E-02  0.11743E-02  0.12997E-02  0.13906E-02
  0.14420E-02  0.14523E-02  0.14211E-02  0.13488E-02  0.12376E-02  0.10929E-02
  0.92226E-03  0.73070E-03  0.52126E-03  0.30460E-03  0.10833E-03 -0.29529E-04
 -0.82854E-04 -0.56311E-04  0.10817E-05 -0.17176E-03 -0.32886E-03 -0.45012E-03
 -0.53328E-03 -0.58248E-03 -0.60514E-03 -0.61421E-03 -0.62215E-03 -0.62929E-03
 -0.62484E-03 -0.60343E-03 -0.57468E-03 -0.55047E-03 -0.52822E-03 -0.49407E-03
 -0.43943E-03 -0.36665E-03 -0.28167E-03 -0.19190E-03 -0.11322E-03 -0.68580E-04
 -0.70904E-04 -0.10714E-03 -0.14046E-03 -0.12767E-03 -0.39134E-04  0.12847E-03
  0.35230E-03  0.59834E-03  0.84052E-03  0.10676E-02  0.12749E-02  0.14545E-02
  0.15955E-02  0.16892E-02  0.17316E-02  0.17218E-02  0.16599E-02  0.15470E-02
  0.13874E-02  0.11903E-02  0.96761E-03  0.72894E-03  0.48270E-03  0.24575E-03
  0.48566E-04 -0.76673E-04 -0.11784E-03 -0.94072E-04 -0.33001E-04 -0.17680E-03
 -0.31055E-03 -0.42141E-03 -0.50316E-03 -0.55463E-03 -0.58273E-03 -0.60005E-03
 -0.61306E-03 -0.61551E-03 -0.59903E-03 -0.56825E-03 -0.53728E-03 -0.51121E-03
 -0.47965E-03 -0.43165E-03 -0.36966E-03 -0.30440E-03 -0.24315E-03 -0.18992E-03
 -0.15269E-03 -0.14094E-03 -0.15366E-03 -0.17222E-03 -0.16534E-03 -0.10193E-03
  0.34711E-04  0.23857E-03  0.48588E-03  0.75078E-03  0.10166E-02  0.12731E-02
  0.15076E-02  0.17047E-02  0.18507E-02  0.19374E-02  0.19608E-02  0.19195E-02
  0.18150E-02  0.16516E-02  0.14377E-02  0.11874E-02  0.91743E-03  0.64198E-03
  0.37472E-03  0.13622E-03 -0.45866E-04 -0.15130E-03 -0.18326E-03 -0.16933E-03
 -0.82094E-04 -0.20627E-03 -0.32273E-03 -0.42057E-03 -0.49196E-03 -0.53611E-03
 -0.56160E-03 -0.57856E-03 -0.58700E-03 -0.57786E-03 -0.54839E-03 -0.50998E-03
 -0.47527E-03 -0.44220E-03 -0.39880E-03 -0.34174E-03 -0.28234E-03 -0.23450E-03
 -0.20381E-03 -0.18974E-03 -0.19125E-03 -0.20534E-03 -0.22190E-03 -0.22204E-03
 -0.18172E-03 -0.80061E-04  0.90382E-04  0.31947E-03  0.58724E-03  0.87526E-03
  0.11689E-02  0.14516E-02  0.17037E-02  0.19069E-02  0.20481E-02  0.21176E-02
  0.21096E-02  0.20240E-02  0.18669E-02  0.16481E-02  0.13810E-02  0.10843E-02
  0.77885E-03  0.48294E-03  0.21355E-03 -0.87653E-05 -0.16410E-03 -0.24597E-03
 -0.26831E-03 -0.25822E-03 -0.13537E-03 -0.24396E-03 -0.34422E-03 -0.42591E-03
 -0.48200E-03 -0.51422E-03 -0.53210E-03 -0.54201E-03 -0.53887E-03 -0.51430E-03
 -0.47163E-03 -0.42525E-03 -0.38350E-03 -0.33990E-03 -0.28577E-03 -0.22607E-03
 -0.17731E-03 -0.15314E-03 -0.15612E-03 -0.18029E-03 -0.21581E-03 -0.25053E-03
 -0.27027E-03 -0.25831E-03 -0.19624E-03 -0.69717E-04  0.12363E-03  0.37328E-03
  0.66311E-03  0.97646E-03  0.12940E-02  0.15925E-02  0.18497E-02  0.20481E-02
  0.21732E-02  0.22121E-02  0.21590E-02  0.20198E-02  0.18074E-02  0.15365E-02
  0.12246E-02  0.89474E-03  0.57111E-03  0.27438E-03  0.22622E-04 -0.16722E-03
 -0.28536E-03 -0.33681E-03 -0.33969E-03 -0.31527E-03 -0.18032E-03 -0.27507E-03
 -0.35936E-03 -0.42386E-03 -0.46360E-03 -0.48277E-03 -0.49014E-03 -0.48750E-03
 -0.46700E-03 -0.42391E-03 -0.36712E-03 -0.31073E-03 -0.25810E-03 -0.20196E-03
 -0.14018E-03 -0.84891E-04 -0.54070E-04 -0.58303E-04 -0.95778E-04 -0.15496E-03
 -0.21944E-03 -0.27260E-03 -0.29950E-03 -0.28487E-03 -0.21260E-03 -0.71358E-04
  0.13890E-03  0.40790E-03  0.71986E-03  0.10544E-02  0.13857E-02  0.16872E-02
  0.19375E-02  0.21189E-02  0.22132E-02  0.22071E-02  0.21005E-02  0.19070E-02
  0.16445E-02  0.13310E-02  0.98802E-03  0.64262E-03  0.32138E-03  0.45650E-04
 -0.16803E-03 -0.30910E-03 -0.37814E-03 -0.38788E-03 -0.35623E-03 -0.29953E-03
 -0.21218E-03 -0.29387E-03 -0.36270E-03 -0.41053E-03 -0.43460E-03 -0.44029E-03
 -0.43379E-03 -0.41268E-03 -0.36964E-03 -0.30581E-03 -0.23373E-03 -0.16430E-03
 -0.97133E-04 -0.28452E-04  0.35700E-04  0.79050E-04  0.86113E-04  0.51297E-04
 -0.19195E-04 -0.10985E-03 -0.20107E-03 -0.27482E-03 -0.31551E-03 -0.30671E-03
 -0.23187E-03 -0.81227E-04  0.14331E-03  0.42994E-03  0.75958E-03  0.11060E-02
  0.14390E-02  0.17317E-02  0.19631E-02  0.21130E-02  0.21625E-02  0.21028E-02
  0.19425E-02  0.17008E-02  0.13977E-02  0.10544E-02  0.69776E-03  0.35830E-03
  0.62921E-04 -0.16866E-03 -0.32413E-03 -0.40127E-03 -0.40988E-03 -0.36701E-03
 -0.28981E-03 -0.19421E-03 -0.23267E-03 -0.30180E-03 -0.35537E-03 -0.38635E-03
 -0.39400E-03 -0.38380E-03 -0.35848E-03 -0.31333E-03 -0.24475E-03 -0.15977E-03
 -0.71216E-04  0.14474E-04  0.98011E-04  0.17631E-03  0.23662E-03  0.26274E-03
  0.24386E-03  0.17858E-03  0.75790E-04 -0.46630E-04 -0.16730E-03 -0.26672E-03
 -0.32670E-03 -0.32779E-03 -0.25277E-03 -0.94306E-04  0.14245E-03  0.44228E-03
  0.78136E-03  0.11286E-02  0.14521E-02  0.17250E-02  0.19250E-02  0.20307E-02
  0.20266E-02  0.19126E-02  0.17042E-02  0.14227E-02  0.10905E-02  0.73432E-03
  0.38610E-03  0.77204E-04 -0.16806E-03 -0.33396E-03 -0.41481E-03 -0.41745E-03
 -0.35869E-03 -0.25798E-03 -0.13373E-03 -0.54143E-05 -0.24533E-03 -0.30142E-03
 -0.33777E-03 -0.34900E-03 -0.33719E-03 -0.30730E-03 -0.25866E-03 -0.18645E-03
 -0.92230E-04  0.13242E-04  0.11961E-03  0.22355E-03  0.32241E-03  0.40595E-03
  0.45827E-03  0.46551E-03  0.42002E-03  0.32228E-03  0.18355E-03  0.24829E-04
 -0.12984E-03 -0.25825E-03 -0.33849E-03 -0.34846E-03 -0.27228E-03 -0.10675E-03
  0.13869E-03  0.44482E-03  0.78362E-03  0.11212E-02  0.14247E-02  0.16671E-02
  0.18247E-02  0.18780E-02  0.18186E-02  0.16546E-02  0.14055E-02  0.10949E-02
  0.75005E-03  0.40349E-03  0.89056E-04 -0.16497E-03 -0.33892E-03 -0.42286E-03
 -0.41932E-03 -0.34347E-03 -0.21672E-03 -0.60689E-04  0.10248E-03  0.24896E-03
 -0.25121E-03 -0.29127E-03 -0.30579E-03 -0.29345E-03 -0.25970E-03 -0.20766E-03
 -0.13331E-03 -0.33548E-04  0.84991E-04  0.21042E-03  0.33569E-03  0.45796E-03
  0.56949E-03  0.65478E-03  0.69705E-03  0.68353E-03  0.60733E-03  0.47109E-03
  0.29087E-03  0.92401E-04 -0.97417E-04 -0.25355E-03 -0.35079E-03 -0.36637E-03
 -0.28788E-03 -0.11727E-03  0.13184E-03  0.43659E-03  0.76569E-03  0.10836E-02
  0.13573E-02  0.15592E-02  0.16664E-02  0.16644E-02  0.15528E-02  0.13462E-02
  0.10674E-02  0.74404E-03  0.40895E-03  0.97326E-04 -0.15958E-03 -0.33860E-03
 -0.42560E-03 -0.41803E-03 -0.32749E-03 -0.17580E-03  0.12623E-04  0.21317E-03
  0.39920E-03  0.54524E-03 -0.24771E-03 -0.26665E-03 -0.25540E-03 -0.21851E-03
 -0.16293E-03 -0.87725E-04  0.13404E-04  0.13980E-03  0.28075E-03  0.42565E-03
  0.57033E-03  0.71008E-03  0.83154E-03  0.91540E-03  0.94373E-03  0.90347E-03
  0.78928E-03  0.60928E-03  0.38620E-03  0.14947E-03 -0.72468E-04 -0.25207E-03
 -0.36169E-03 -0.37984E-03 -0.29902E-03 -0.12611E-03  0.12157E-03  0.41775E-03
  0.72841E-03  0.10173E-02  0.12518E-02  0.14054E-02  0.14584E-02  0.14031E-02
  0.12468E-02  0.10091E-02  0.71682E-03  0.40219E-03  0.10104E-03 -0.15298E-03
 -0.33352E-03 -0.42279E-03 -0.41331E-03 -0.31181E-03 -0.13879E-03  0.79144E-04
  0.31525E-03  0.54158E-03  0.72898E-03  0.85496E-03 -0.23142E-03 -0.22506E-03
 -0.18757E-03 -0.12791E-03 -0.51012E-04  0.48268E-04  0.17521E-03  0.32443E-03
  0.48436E-03  0.64823E-03  0.81319E-03  0.96957E-03  0.10976E-02  0.11744E-02
  0.11813E-02  0.11065E-02  0.94961E-03  0.72605E-03  0.46350E-03  0.19259E-03
 -0.56955E-04 -0.25443E-03 -0.37099E-03 -0.38871E-03 -0.30565E-03 -0.13293E-03
  0.10877E-03  0.38968E-03  0.67377E-03  0.92527E-03  0.11136E-02  0.12147E-02
  0.12144E-02  0.11125E-02  0.92314E-03  0.67015E-03  0.38415E-03  0.10042E-03
 -0.14563E-03 -0.32449E-03 -0.41518E-03 -0.40600E-03 -0.29818E-03 -0.10873E-03
  0.13465E-03  0.40233E-03  0.66531E-03  0.89345E-03  0.10593E-02  0.11476E-02
 -0.20098E-03 -0.16707E-03 -0.10383E-03 -0.21950E-04  0.76179E-04  0.19651E-03
  0.34128E-03  0.50430E-03  0.67910E-03  0.86352E-03  0.10511E-02  0.12228E-02
  0.13517E-02  0.14134E-02  0.13911E-02  0.12771E-02  0.10775E-02  0.81371E-03
  0.51549E-03  0.21460E-03 -0.56016E-04 -0.26281E-03 -0.37896E-03 -0.39258E-03
 -0.30701E-03 -0.13668E-03  0.94380E-04  0.35328E-03  0.60348E-03  0.81142E-03
  0.94963E-03  0.99856E-03  0.95068E-03  0.81321E-03  0.60565E-03  0.35545E-03
  0.95840E-04 -0.13731E-03 -0.31168E-03 -0.40328E-03 -0.39728E-03 -0.28970E-03
 -0.91636E-04  0.17119E-03  0.46645E-03  0.76232E-03  0.10277E-02  0.12332E-02
  0.13576E-02  0.13945E-02 -0.15464E-03 -0.89123E-04  0.20864E-05  0.10521E-03
  0.21700E-03  0.34273E-03  0.48712E-03  0.65289E-03  0.84305E-03  0.10546E-02
  0.12686E-02  0.14529E-02  0.15755E-02  0.16144E-02  0.15575E-02  0.14028E-02
  0.11622E-02  0.86074E-03  0.53078E-03  0.20751E-03 -0.72549E-04 -0.27671E-03
 -0.38444E-03 -0.39070E-03 -0.30270E-03 -0.13759E-03  0.77215E-04  0.30696E-03
  0.51680E-03  0.67705E-03  0.76461E-03  0.76582E-03  0.68055E-03  0.52237E-03
  0.31432E-03  0.85882E-04 -0.12872E-03 -0.29548E-03 -0.38735E-03 -0.38708E-03
 -0.28697E-03 -0.91440E-04  0.17993E-03  0.49569E-03  0.82067E-03  0.11207E-02
  0.13642E-02  0.15260E-02  0.15943E-02  0.15704E-02 -0.84491E-04  0.19812E-04
  0.13802E-03  0.24853E-03  0.34741E-03  0.44779E-03  0.57083E-03  0.73687E-03
  0.95387E-03  0.12050E-02  0.14497E-02  0.16426E-02  0.17517E-02  0.17615E-02
  0.16664E-02  0.14703E-02  0.11903E-02  0.85590E-03  0.50346E-03  0.17181E-03