       #
       # Generated by the Wannier90 code http://www.wannier.org
       # On 24May2018 at 03:59:59 
       #
CRYSTAL
PRIMVEC
   1.4737519  -0.8508707   2.4066280
   0.0000000   1.7017413   2.4066280
  -1.4737519  -0.8508707   2.4066280
CONVVEC
   1.4737519  -0.8508707   2.4066280
   0.0000000   1.7017413   2.4066280
  -1.4737519  -0.8508707   2.4066280
PRIMCOORD
     2  1
Ni      0.0000000   0.0000000   0.0000000
O       0.0000000   0.0000000   3.6099420


BEGIN_BLOCK_DATAGRID_3D
3D_field
BEGIN_DATAGRID_3D_UNKNOWN
    50    50    50
    0.000000   -0.000000   -7.508679
   2.8885537  -1.6677065   4.7169909
   0.0000000   3.3354130   4.7169909
  -2.8885537  -1.6677065   4.7169909
  0.37038E-03  0.83458E-03  0.11261E-02  0.10947E-02  0.76523E-03  0.29919E-03
 -0.13748E-03 -0.46494E-03 -0.68110E-03 -0.80430E-03 -0.83796E-03 -0.78155E-03
 -0.65967E-03 -0.52337E-03 -0.41091E-03 -0.31062E-03 -0.17589E-03  0.20262E-04
  0.26152E-03  0.53269E-03  0.87527E-03  0.13619E-02  0.19827E-02  0.25587E-02
  0.28126E-02  0.25746E-02  0.19427E-02  0.12254E-02  0.70180E-03  0.41855E-03
  0.20238E-03 -0.15135E-03 -0.70545E-03 -0.13639E-02 -0.19867E-02 -0.25068E-02
 -0.29517E-02 -0.33816E-02 -0.38282E-02 -0.42900E-02 -0.47591E-02 -0.52301E-02
 -0.56841E-02 -0.60755E-02 -0.63291E-02 -0.63479E-02 -0.60583E-02 -0.54805E-02
 -0.47301E-02 -0.38906E-02  0.83424E-03  0.12337E-02  0.13113E-02  0.10484E-02
  0.58876E-03  0.10192E-03 -0.31530E-03 -0.62966E-03 -0.82423E-03 -0.88807E-03
 -0.83756E-03 -0.72336E-03 -0.60452E-03 -0.50957E-03 -0.41914E-03 -0.29082E-03
 -0.10816E-03  0.99909E-04  0.30317E-03  0.53414E-03  0.88197E-03  0.13901E-02
  0.19551E-02  0.23571E-02  0.24299E-02  0.22144E-02  0.19321E-02  0.17854E-02
  0.17696E-02  0.16729E-02  0.12611E-02  0.47733E-03 -0.51530E-03 -0.14683E-02
 -0.22268E-02 -0.27969E-02 -0.32733E-02 -0.37326E-02 -0.42007E-02 -0.46827E-02
 -0.51768E-02 -0.56550E-02 -0.60517E-02 -0.62653E-02 -0.61458E-02 -0.55163E-02
 -0.43039E-02 -0.27074E-02 -0.11802E-02 -0.15944E-03  0.11258E-02  0.13114E-02
  0.11535E-02  0.75736E-03  0.27878E-03 -0.17991E-03 -0.56399E-03 -0.82380E-03
 -0.92434E-03 -0.88551E-03 -0.77942E-03 -0.67608E-03 -0.59557E-03 -0.51023E-03
 -0.38506E-03 -0.21733E-03 -0.42278E-04  0.10503E-03  0.24144E-03  0.43961E-03
  0.75471E-03  0.11379E-02  0.14474E-02  0.15791E-02  0.15913E-02  0.16742E-02
  0.19661E-02  0.23841E-02  0.26353E-02  0.24115E-02  0.16131E-02  0.42512E-03
 -0.81103E-03 -0.18249E-02 -0.25562E-02 -0.31088E-02 -0.36048E-02 -0.41018E-02
 -0.46142E-02 -0.51452E-02 -0.56685E-02 -0.61085E-02 -0.63532E-02 -0.62443E-02
 -0.55470E-02 -0.40394E-02 -0.17796E-02  0.68613E-03  0.24877E-02  0.29286E-02
  0.10949E-02  0.10488E-02  0.75769E-03  0.34369E-03 -0.10063E-03 -0.51054E-03
 -0.81214E-03 -0.94578E-03 -0.92421E-03 -0.83059E-03 -0.74323E-03 -0.67441E-03
 -0.58716E-03 -0.45552E-03 -0.29663E-03 -0.15219E-03 -0.48922E-04  0.27255E-04
  0.12244E-03  0.26767E-03  0.42810E-03  0.51701E-03  0.49691E-03  0.47628E-03
  0.66990E-03  0.12144E-02  0.19962E-02  0.26615E-02  0.28160E-02  0.22687E-02
  0.11478E-02 -0.18735E-03 -0.13762E-02 -0.22602E-02 -0.29048E-02 -0.34557E-02
 -0.40011E-02 -0.45602E-02 -0.51340E-02 -0.57051E-02 -0.62055E-02 -0.65253E-02
 -0.65290E-02 -0.60031E-02 -0.46446E-02 -0.22804E-02  0.76123E-03  0.35356E-02
  0.48906E-02  0.41603E-02  0.76592E-03  0.58961E-03  0.27942E-03 -0.10034E-03
 -0.49011E-03 -0.80196E-03 -0.95493E-03 -0.94917E-03 -0.86982E-03 -0.79967E-03
 -0.74416E-03 -0.65507E-03 -0.51097E-03 -0.35019E-03 -0.22726E-03 -0.15805E-03
 -0.11517E-03 -0.66283E-04 -0.13960E-04 -0.90934E-05 -0.11914E-03 -0.34714E-03
 -0.55657E-03 -0.50417E-03 -0.98064E-05  0.86100E-03  0.17741E-02  0.23003E-02
  0.21572E-02  0.13553E-02  0.17224E-03 -0.10238E-02 -0.19903E-02 -0.27113E-02
 -0.33125E-02 -0.39025E-02 -0.45080E-02 -0.51215E-02 -0.57332E-02 -0.62971E-02
 -0.67168E-02 -0.68792E-02 -0.66341E-02 -0.57145E-02 -0.38067E-02 -0.90003E-03
  0.23614E-02  0.47755E-02  0.52134E-02  0.33524E-02  0.30024E-03  0.10297E-03
 -0.17915E-03 -0.51012E-03 -0.80181E-03 -0.95699E-03 -0.96003E-03 -0.89112E-03
 -0.83452E-03 -0.79239E-03 -0.70745E-03 -0.55606E-03 -0.38912E-03 -0.27521E-03
 -0.22660E-03 -0.19988E-03 -0.16085E-03 -0.13336E-03 -0.18846E-03 -0.39304E-03
 -0.74613E-03 -0.11274E-02 -0.13110E-02 -0.10869E-02 -0.43004E-03  0.43166E-03
  0.11253E-02  0.13353E-02  0.95525E-03  0.11667E-03 -0.90212E-03 -0.18395E-02
 -0.25913E-02 -0.32181E-02 -0.38239E-02 -0.44498E-02 -0.50848E-02 -0.57213E-02
 -0.63417E-02 -0.68763E-02 -0.72208E-02 -0.72670E-02 -0.68408E-02 -0.56484E-02
 -0.34562E-02 -0.47437E-03  0.24436E-02  0.41183E-02  0.37450E-02  0.14737E-02
 -0.13636E-03 -0.31433E-03 -0.56334E-03 -0.81177E-03 -0.95478E-03 -0.96001E-03
 -0.89714E-03 -0.84795E-03 -0.81396E-03 -0.73522E-03 -0.58566E-03 -0.41830E-03
 -0.30690E-03 -0.26374E-03 -0.23777E-03 -0.19067E-03 -0.15436E-03 -0.20832E-03
 -0.41471E-03 -0.77305E-03 -0.12030E-02 -0.15474E-02 -0.16245E-02 -0.13398E-02
 -0.77939E-03 -0.18517E-03  0.17372E-03  0.12979E-03 -0.32587E-03 -0.10578E-02
 -0.18623E-02 -0.25859E-02 -0.32059E-02 -0.37918E-02 -0.43985E-02 -0.50263E-02
 -0.56671E-02 -0.63257E-02 -0.69717E-02 -0.75125E-02 -0.78375E-02 -0.78289E-02
 -0.72945E-02 -0.59791E-02 -0.37974E-02 -0.11289E-02  0.11778E-02  0.22257E-02
  0.16524E-02 -0.51549E-04 -0.46405E-03 -0.62901E-03 -0.82342E-03 -0.94561E-03
 -0.94916E-03 -0.89122E-03 -0.84805E-03 -0.81869E-03 -0.74308E-03 -0.59763E-03
 -0.43623E-03 -0.32892E-03 -0.28261E-03 -0.24377E-03 -0.17685E-03 -0.12012E-03
 -0.15342E-03 -0.32402E-03 -0.61756E-03 -0.98239E-03 -0.13458E-02 -0.16072E-02
 -0.16646E-02 -0.14889E-02 -0.11708E-02 -0.88080E-03 -0.78244E-03 -0.96756E-03
 -0.14270E-02 -0.20530E-02 -0.26994E-02 -0.32813E-02 -0.38185E-02 -0.43723E-02
 -0.49666E-02 -0.55966E-02 -0.62732E-02 -0.70029E-02 -0.77253E-02 -0.83173E-02
 -0.86518E-02 -0.86014E-02 -0.79950E-02 -0.66754E-02 -0.46965E-02 -0.24705E-02
 -0.64905E-03  0.24565E-03  0.18631E-03 -0.27883E-03 -0.68063E-03 -0.82400E-03
 -0.92429E-03 -0.92428E-03 -0.87002E-03 -0.83479E-03 -0.81421E-03 -0.74321E-03
 -0.59978E-03 -0.44352E-03 -0.34261E-03 -0.29387E-03 -0.23780E-03 -0.14410E-03
 -0.60950E-04 -0.70205E-04 -0.20423E-03 -0.42526E-03 -0.68394E-03 -0.96709E-03
 -0.12669E-02 -0.15277E-02 -0.16667E-02 -0.16539E-02 -0.15543E-02 -0.14912E-02
 -0.15800E-02 -0.18786E-02 -0.23567E-02 -0.29082E-02 -0.34284E-02 -0.38986E-02
 -0.43784E-02 -0.49215E-02 -0.55346E-02 -0.62195E-02 -0.69964E-02 -0.78474E-02
 -0.86666E-02 -0.92996E-02 -0.96114E-02 -0.94894E-02 -0.88203E-02 -0.75463E-02
 -0.57813E-02 -0.38468E-02 -0.21396E-02 -0.89733E-03 -0.29621E-04  0.83438E-03
 -0.80426E-03 -0.88818E-03 -0.88570E-03 -0.83087E-03 -0.80007E-03 -0.79283E-03
 -0.73562E-03 -0.59794E-03 -0.44373E-03 -0.34745E-03 -0.30050E-03 -0.23355E-03
 -0.11630E-03 -0.53892E-05  0.12722E-04 -0.87520E-04 -0.25194E-03 -0.42060E-03
 -0.60269E-03 -0.85363E-03 -0.11804E-02 -0.15016E-02 -0.17205E-02 -0.18218E-02
 -0.18839E-02 -0.20150E-02 -0.22858E-02 -0.26952E-02 -0.31717E-02 -0.36241E-02
 -0.40216E-02 -0.44215E-02 -0.49028E-02 -0.54929E-02 -0.61823E-02 -0.69790E-02
 -0.78918E-02 -0.88579E-02 -0.97291E-02 -0.10343E-01 -0.10582E-01 -0.10365E-01
 -0.96262E-02 -0.83566E-02 -0.66538E-02 -0.47169E-02 -0.27613E-02 -0.90485E-03
  0.88870E-03  0.27389E-02 -0.83821E-03 -0.83787E-03 -0.77979E-03 -0.74371E-03
 -0.74476E-03 -0.70808E-03 -0.58627E-03 -0.43683E-03 -0.34313E-03 -0.30081E-03
 -0.23290E-03 -0.10338E-03  0.28376E-04  0.73638E-04  0.96655E-05 -0.10567E-03
 -0.20999E-03 -0.31609E-03 -0.50230E-03 -0.81687E-03 -0.12058E-02 -0.15563E-02
 -0.18085E-02 -0.20064E-02 -0.22430E-02 -0.25764E-02 -0.29960E-02 -0.34398E-02
 -0.38393E-02 -0.41763E-02 -0.45101E-02 -0.49318E-02 -0.54874E-02 -0.61668E-02
 -0.69601E-02 -0.78805E-02 -0.89049E-02 -0.99230E-02 -0.10774E-01 -0.11320E-01
 -0.11468E-01 -0.11147E-01 -0.10298E-01 -0.89146E-02 -0.70603E-02 -0.48601E-02
 -0.24611E-02  0.14231E-04  0.24857E-02  0.48774E-02 -0.78198E-03 -0.72383E-03
 -0.67665E-03 -0.67516E-03 -0.65594E-03 -0.55696E-03 -0.41923E-03 -0.32988E-03
 -0.29474E-03 -0.23418E-03 -0.10370E-03  0.38516E-04  0.10335E-03  0.73130E-04
  0.66809E-05 -0.43263E-04 -0.98131E-04 -0.23777E-03 -0.51875E-03 -0.90855E-03
 -0.13091E-02 -0.16519E-02 -0.19601E-02 -0.23094E-02 -0.27395E-02 -0.32167E-02
 -0.36688E-02 -0.40436E-02 -0.43465E-02 -0.46447E-02 -0.50262E-02 -0.55400E-02
 -0.61803E-02 -0.69338E-02 -0.78165E-02 -0.88325E-02 -0.99113E-02 -0.10916E-01
 -0.11708E-01 -0.12182E-01 -0.12240E-01 -0.11782E-01 -0.10739E-01 -0.91023E-02
 -0.69267E-02 -0.43238E-02 -0.14509E-02  0.15102E-02  0.43764E-02  0.69688E-02
 -0.66026E-03 -0.60520E-03 -0.59643E-03 -0.58822E-03 -0.51213E-03 -0.39033E-03
 -0.30819E-03 -0.28394E-03 -0.23901E-03 -0.11727E-03  0.27653E-04  0.10291E-03
  0.94603E-04  0.69132E-04  0.71545E-04  0.61717E-04 -0.45332E-04 -0.29629E-03
 -0.65959E-03 -0.10579E-02 -0.14404E-02 -0.18262E-02 -0.22729E-02 -0.27992E-02
 -0.33501E-02 -0.38392E-02 -0.42199E-02 -0.45182E-02 -0.48111E-02 -0.51764E-02
 -0.56485E-02 -0.62181E-02 -0.68804E-02 -0.76703E-02 -0.86234E-02 -0.97042E-02
 -0.10798E-01 -0.11772E-01 -0.12518E-01 -0.12927E-01 -0.12861E-01 -0.12192E-01
 -0.10856E-01 -0.88627E-02 -0.62818E-02 -0.32473E-02  0.33963E-04  0.33113E-02
  0.63389E-02  0.89095E-02 -0.52414E-03 -0.51050E-03 -0.51138E-03 -0.45685E-03
 -0.35162E-03 -0.27674E-03 -0.26541E-03 -0.24549E-03 -0.14573E-03 -0.68688E-05
  0.72319E-04  0.72067E-04  0.68519E-04  0.11306E-03  0.15048E-03  0.78568E-04
 -0.14433E-03 -0.47384E-03 -0.84219E-03 -0.12258E-02 -0.16570E-02 -0.21793E-02
 -0.27883E-02 -0.34114E-02 -0.39539E-02 -0.43690E-02 -0.46891E-02 -0.49943E-02
 -0.53512E-02 -0.57749E-02 -0.62453E-02 -0.67649E-02 -0.73965E-02 -0.82209E-02
 -0.92475E-02 -0.10384E-01 -0.11495E-01 -0.12469E-01 -0.13191E-01 -0.13505E-01
 -0.13238E-01 -0.12270E-01 -0.10571E-01 -0.81773E-02 -0.51817E-02 -0.17663E-02
  0.17986E-02  0.52124E-02  0.82131E-02  0.10610E-01 -0.41184E-03 -0.42028E-03
 -0.38643E-03 -0.29818E-03 -0.22898E-03 -0.22852E-03 -0.23989E-03 -0.17907E-03
 -0.63162E-04  0.10558E-04  0.76074E-05  0.48889E-05  0.70212E-04  0.14975E-03
  0.12191E-03 -0.65688E-04 -0.35901E-03 -0.68698E-03 -0.10470E-02 -0.14939E-02
 -0.20672E-02 -0.27397E-02 -0.34236E-02 -0.40235E-02 -0.44937E-02 -0.48596E-02
 -0.51870E-02 -0.55263E-02 -0.58791E-02 -0.62192E-02 -0.65539E-02 -0.69684E-02
 -0.75883E-02 -0.84804E-02 -0.95917E-02 -0.10793E-01 -0.11956E-01 -0.12960E-01
 -0.13642E-01 -0.13796E-01 -0.13252E-01 -0.11935E-01 -0.98519E-02 -0.70635E-02
 -0.37082E-02 -0.31164E-04  0.36496E-02  0.70244E-02  0.98500E-02  0.11962E-01
 -0.31169E-03 -0.29215E-03 -0.21893E-03 -0.15403E-03 -0.16016E-03 -0.20229E-03
 -0.19333E-03 -0.12292E-03 -0.73072E-04 -0.90412E-04 -0.10848E-03 -0.45835E-04
  0.59542E-04  0.76911E-04 -0.66647E-04 -0.32077E-03 -0.60728E-03 -0.93207E-03
 -0.13715E-02 -0.19710E-02 -0.26856E-02 -0.34120E-02 -0.40587E-02 -0.45882E-02
 -0.50157E-02 -0.53774E-02 -0.56939E-02 -0.59534E-02 -0.61318E-02 -0.62454E-02
 -0.63937E-02 -0.67349E-02 -0.73928E-02 -0.83737E-02 -0.95764E-02 -0.10866E-01
 -0.12111E-01 -0.13142E-01 -0.13737E-01 -0.13678E-01 -0.12833E-01 -0.11169E-01
 -0.87215E-02 -0.55965E-02 -0.19984E-02  0.17756E-02  0.54014E-02  0.85918E-02
  0.11124E-01  0.12847E-01 -0.17717E-03 -0.10974E-03 -0.44172E-04 -0.51144E-04
 -0.11775E-03 -0.16376E-03 -0.15753E-03 -0.15677E-03 -0.20772E-03 -0.25554E-03
 -0.21361E-03 -0.10163E-03 -0.48565E-04 -0.14714E-03 -0.36116E-03 -0.60848E-03
 -0.89377E-03 -0.13088E-02 -0.19116E-02 -0.26483E-02 -0.33991E-02 -0.40737E-02
 -0.46489E-02 -0.51374E-02 -0.55440E-02 -0.58488E-02 -0.60155E-02 -0.60172E-02
 -0.58763E-02 -0.56995E-02 -0.56685E-02 -0.59645E-02 -0.66736E-02 -0.77553E-02
 -0.90878E-02 -0.10520E-01 -0.11869E-01 -0.12904E-01 -0.13379E-01 -0.13105E-01
 -0.11987E-01 -0.10016E-01 -0.72674E-02 -0.39155E-02 -0.22976E-03  0.34787E-02
  0.69084E-02  0.97889E-02  0.11901E-01  0.13115E-01  0.18737E-04  0.98044E-04
  0.10279E-03  0.24632E-04 -0.69268E-04 -0.13667E-03 -0.21190E-03 -0.32788E-03
 -0.42940E-03 -0.42501E-03 -0.32068E-03 -0.24240E-03 -0.30078E-03 -0.47796E-03
 -0.69047E-03 -0.93462E-03 -0.13101E-02 -0.18933E-02 -0.26328E-02 -0.33948E-02
 -0.40826E-02 -0.46841E-02 -0.52190E-02 -0.56721E-02 -0.59833E-02 -0.60807E-02
 -0.59162E-02 -0.54963E-02 -0.49145E-02 -0.43637E-02 -0.40919E-02 -0.43053E-02
 -0.50839E-02 -0.63630E-02 -0.79691E-02 -0.96614E-02 -0.11165E-01 -0.12210E-01
 -0.12580E-01 -0.12131E-01 -0.10790E-01 -0.85766E-02 -0.56278E-02 -0.21936E-02
  0.14257E-02  0.49320E-02  0.80367E-02  0.10467E-01  0.12018E-01  0.12615E-01
  0.25979E-03  0.30104E-03  0.23889E-03  0.11952E-03 -0.17207E-04 -0.19204E-03
 -0.41868E-03 -0.62197E-03 -0.68883E-03 -0.60804E-03 -0.50801E-03 -0.52462E-03
 -0.66540E-03 -0.84766E-03 -0.10519E-02 -0.13755E-02 -0.19144E-02 -0.26342E-02
 -0.33958E-02 -0.40895E-02 -0.47048E-02 -0.52705E-02 -0.57643E-02 -0.60955E-02
 -0.61526E-02 -0.58489E-02 -0.51461E-02 -0.40873E-02 -0.28418E-02 -0.17130E-02
 -0.10660E-02 -0.11952E-02 -0.22053E-02 -0.39609E-02 -0.61272E-02 -0.82801E-02
 -0.10038E-01 -0.11143E-01 -0.11448E-01 -0.10863E-01 -0.93505E-02 -0.69826E-02
 -0.39682E-02 -0.60229E-03  0.28129E-02  0.59865E-02  0.86257E-02  0.10469E-01
  0.11359E-01  0.11270E-01  0.53079E-03  0.53177E-03  0.43685E-03  0.26462E-03
 -0.12410E-04 -0.39677E-03 -0.77733E-03 -0.98731E-03 -0.97270E-03 -0.85992E-03
 -0.82370E-03 -0.91567E-03 -0.10650E-02 -0.12326E-02 -0.15001E-02 -0.19764E-02
 -0.26525E-02 -0.33977E-02 -0.40910E-02 -0.47131E-02 -0.52980E-02 -0.58251E-02
 -0.61847E-02 -0.62269E-02 -0.58172E-02 -0.48576E-02 -0.33152E-02 -0.12902E-02
  0.91837E-03  0.28228E-02  0.38680E-02  0.36327E-02  0.20259E-02 -0.63057E-03
 -0.37096E-02 -0.65403E-02 -0.86564E-02 -0.98621E-02 -0.10118E-01 -0.94211E-02
 -0.78002E-02 -0.53935E-02 -0.24584E-02  0.69832E-03  0.37782E-02  0.64887E-02
  0.85467E-02  0.97293E-02  0.99058E-02  0.90034E-02  0.87316E-03  0.87942E-03
  0.75198E-03  0.42531E-03 -0.12214E-03 -0.74964E-03 -0.12073E-02 -0.13509E-02
 -0.12730E-02 -0.11875E-02 -0.12137E-02 -0.13175E-02 -0.14488E-02 -0.16651E-02
 -0.20749E-02 -0.26923E-02 -0.34046E-02 -0.40868E-02 -0.47076E-02 -0.52994E-02
 -0.58484E-02 -0.62384E-02 -0.62885E-02 -0.58131E-02 -0.46554E-02 -0.27187E-02
 -0.30217E-04  0.31797E-02  0.64338E-02  0.90439E-02  0.10265E-01  0.95723E-02
  0.69607E-02  0.30463E-02 -0.11711E-02 -0.47684E-02 -0.72444E-02 -0.85230E-02
 -0.87169E-02 -0.79382E-02 -0.62969E-02 -0.39791E-02 -0.12578E-02  0.15646E-02
  0.41951E-02  0.63559E-02  0.77950E-02  0.82944E-02  0.76358E-02  0.55919E-02
  0.13597E-02  0.13878E-02  0.11358E-02  0.51521E-03 -0.34909E-03 -0.11300E-02
 -0.15511E-02 -0.16122E-02 -0.15343E-02 -0.15096E-02 -0.15653E-02 -0.16614E-02
 -0.18358E-02 -0.21887E-02 -0.27485E-02 -0.34199E-02 -0.40804E-02 -0.46895E-02
 -0.52746E-02 -0.58278E-02 -0.62397E-02 -0.63138E-02 -0.58196E-02 -0.45452E-02
 -0.23622E-02  0.70898E-03  0.44765E-02  0.85864E-02  0.12498E-01  0.15442E-01
  0.16530E-01  0.15138E-01  0.11366E-01  0.61610E-02  0.89850E-03 -0.33024E-02
 -0.59841E-02 -0.72450E-02 -0.73670E-02 -0.65685E-02 -0.50108E-02 -0.28971E-02
 -0.49737E-03  0.18987E-02  0.40228E-02  0.56301E-02  0.64678E-02  0.62175E-02
  0.44691E-02  0.87993E-03  0.19807E-02  0.19538E-02  0.14471E-02  0.49709E-03
 -0.55665E-03 -0.13121E-02 -0.16273E-02 -0.16696E-02 -0.16738E-02 -0.17294E-02
 -0.18184E-02 -0.19705E-02 -0.22833E-02 -0.27985E-02 -0.34333E-02 -0.40675E-02
 -0.46566E-02 -0.52255E-02 -0.57694E-02 -0.61884E-02 -0.62909E-02 -0.58207E-02
 -0.45125E-02 -0.22151E-02  0.97949E-03  0.47677E-02  0.88345E-02  0.12969E-01
  0.16865E-01  0.19801E-01  0.20694E-01  0.18722E-01  0.14050E-01  0.79417E-02
  0.20788E-02 -0.23355E-02 -0.49766E-02 -0.61332E-02 -0.62115E-02 -0.54749E-02
 -0.40932E-02 -0.22682E-02 -0.25786E-03  0.16805E-02  0.33216E-02  0.44331E-02
  0.46872E-02  0.35952E-02  0.60401E-03 -0.45144E-02  0.25580E-02  0.23580E-02
  0.15815E-02  0.47917E-03 -0.50200E-03 -0.10866E-02 -0.13421E-02 -0.14941E-02
 -0.16616E-02 -0.18314E-02 -0.20170E-02 -0.23203E-02 -0.28102E-02 -0.34223E-02
 -0.40338E-02 -0.45976E-02 -0.51457E-02 -0.56793E-02 -0.61014E-02 -0.62316E-02
 -0.58163E-02 -0.45471E-02 -0.22159E-02  0.10241E-02  0.46159E-02  0.79921E-02
  0.11079E-01  0.14273E-01  0.17735E-01  0.20701E-01  0.21682E-01  0.19544E-01
  0.14515E-01  0.81441E-02  0.22978E-02 -0.18864E-02 -0.42767E-02 -0.53007E-02
 -0.53920E-02 -0.47903E-02 -0.36493E-02 -0.21617E-02 -0.55453E-03  0.96754E-03
  0.22151E-02  0.29288E-02  0.26818E-02  0.88174E-03 -0.29818E-02 -0.87929E-02
  0.28142E-02  0.24338E-02  0.15967E-02  0.67542E-03 -0.58640E-05 -0.42894E-03
 -0.78181E-03 -0.11766E-02 -0.15627E-02 -0.18940E-02 -0.22539E-02 -0.27508E-02
 -0.33615E-02 -0.39651E-02 -0.45042E-02 -0.50254E-02 -0.55527E-02 -0.59909E-02
 -0.61591E-02 -0.58225E-02 -0.46592E-02 -0.23646E-02  0.97839E-03  0.46157E-02
  0.74786E-02  0.91055E-02  0.10215E-01  0.12111E-01  0.15284E-01  0.18591E-01
  0.19951E-01  0.17987E-01  0.13096E-01  0.70654E-02  0.17641E-02 -0.18794E-02
 -0.39269E-02 -0.48468E-02 -0.50089E-02 -0.45934E-02 -0.37302E-02 -0.25853E-02
 -0.13314E-02 -0.11836E-03  0.88400E-03  0.13997E-02  0.98198E-03 -0.92931E-03
 -0.46838E-02 -0.98468E-02  0.25788E-02  0.22212E-02  0.16821E-02  0.12215E-02
  0.86552E-03  0.43243E-03 -0.18839E-03 -0.88740E-03 -0.15001E-02 -0.20253E-02
 -0.25874E-02 -0.32281E-02 -0.38506E-02 -0.43801E-02 -0.48701E-02 -0.53871E-02
 -0.58576E-02 -0.60886E-02 -0.58557E-02 -0.48631E-02 -0.27227E-02  0.70669E-03
  0.47669E-02  0.79924E-02  0.91059E-02  0.82998E-02  0.73990E-02  0.84110E-02
  0.11668E-01  0.15360E-01  0.16944E-01  0.15111E-01  0.10578E-01  0.52467E-02
  0.77100E-03 -0.22283E-02 -0.39562E-02 -0.48298E-02 -0.51101E-02 -0.49107E-02
 -0.43259E-02 -0.34715E-02 -0.24584E-02 -0.13897E-02 -0.39599E-03  0.30559E-03
  0.33754E-03 -0.81078E-03 -0.34540E-02 -0.71361E-02  0.19490E-02  0.19406E-02
  0.19749E-02  0.20033E-02  0.17777E-02  0.11248E-02  0.16933E-03 -0.78973E-03
 -0.15892E-02 -0.22960E-02 -0.30070E-02 -0.36801E-02 -0.42311E-02 -0.46999E-02
 -0.51971E-02 -0.57034E-02 -0.60243E-02 -0.59241E-02 -0.51529E-02 -0.33205E-02
 -0.33764E-04  0.44750E-02  0.88347E-02  0.11080E-01  0.10216E-01  0.73990E-02
  0.53182E-02  0.60576E-02  0.93433E-02  0.12803E-01  0.13924E-01  0.11863E-01
  0.76800E-02  0.31612E-02 -0.45256E-03 -0.28741E-02 -0.43771E-02 -0.52715E-02
 -0.57008E-02 -0.57122E-02 -0.53506E-02 -0.46749E-02 -0.37440E-02 -0.26044E-02
 -0.12925E-02  0.82406E-04  0.11592E-02  0.12819E-02 -0.11491E-03 -0.28305E-02
  0.12324E-02  0.17938E-02  0.23919E-02  0.26669E-02  0.23020E-02  0.13330E-02
  0.12425E-03 -0.97531E-03 -0.18877E-02 -0.27053E-02 -0.34505E-02 -0.40543E-02
 -0.45286E-02 -0.50043E-02 -0.55359E-02 -0.59626E-02 -0.60257E-02 -0.55038E-02
 -0.40936E-02 -0.12949E-02  0.31770E-02  0.85859E-02  0.12970E-01  0.14274E-01
  0.12111E-01  0.84098E-02  0.60561E-02  0.66146E-02  0.91898E-02  0.11378E-01
  0.11270E-01  0.86805E-02  0.48181E-02  0.10866E-02 -0.17881E-02 -0.37953E-02
 -0.51948E-02 -0.61619E-02 -0.67325E-02 -0.68938E-02 -0.66452E-02 -0.60036E-02
 -0.49804E-02 -0.35380E-02 -0.16006E-02  0.74410E-03  0.29306E-02  0.38973E-02
  0.26868E-02 -0.67569E-03  0.70781E-03  0.17761E-02  0.26406E-02  0.28186E-02
  0.21564E-02  0.95128E-03 -0.33217E-03 -0.14348E-02 -0.23656E-02 -0.31813E-02
 -0.38491E-02 -0.43563E-02 -0.48206E-02 -0.53605E-02 -0.58882E-02 -0.61403E-02
 -0.58840E-02 -0.49212E-02 -0.28472E-02  0.91462E-03  0.64321E-02  0.12498E-01
  0.16866E-01  0.17735E-01  0.15282E-01  0.11665E-01  0.93392E-02  0.91872E-02
  0.10115E-01  0.10291E-01  0.86901E-02  0.56328E-02  0.21616E-02 -0.87373E-03
 -0.32155E-02 -0.49991E-02 -0.63924E-02 -0.74350E-02 -0.80829E-02 -0.82873E-02
 -0.80218E-02 -0.72736E-02 -0.60005E-02 -0.40837E-02 -0.14242E-02  0.17059E-02
  0.43141E-02  0.48839E-02  0.22987E-02 -0.31286E-02  0.42222E-03  0.16764E-02
  0.24136E-02  0.22685E-02  0.13524E-02  0.11164E-03 -0.10643E-02 -0.20604E-02
 -0.29164E-02 -0.36328E-02 -0.41851E-02 -0.46534E-02 -0.51849E-02 -0.57834E-02
 -0.62272E-02 -0.62529E-02 -0.57060E-02 -0.43692E-02 -0.17173E-02  0.28201E-02
  0.90431E-02  0.15442E-01  0.19801E-01  0.20700E-01  0.18586E-01  0.15354E-01
  0.12797E-01  0.11373E-01  0.10288E-01  0.85518E-02  0.58804E-02  0.27372E-02
 -0.24097E-03 -0.27335E-02 -0.47700E-02 -0.64780E-02 -0.78918E-02 -0.89506E-02
 -0.95759E-02 -0.97089E-02 -0.93078E-02 -0.83310E-02 -0.66962E-02 -0.42784E-02
 -0.11211E-02  0.21444E-02  0.40961E-02  0.30565E-02 -0.17338E-02 -0.91877E-02
  0.20335E-03  0.12617E-02  0.16125E-02  0.11454E-02  0.16818E-03 -0.90738E-03
 -0.18683E-02 -0.27061E-02 -0.34358E-02 -0.40292E-02 -0.45177E-02 -0.50336E-02
 -0.56558E-02 -0.62524E-02 -0.65604E-02 -0.63995E-02 -0.56734E-02 -0.40958E-02
 -0.10688E-02  0.38665E-02  0.10265E-01  0.16530E-01  0.20693E-01  0.21678E-01
  0.19945E-01  0.16936E-01  0.13916E-01  0.11263E-01  0.86856E-02  0.58783E-02
  0.29078E-02  0.74055E-04 -0.24149E-02 -0.45668E-02 -0.64757E-02 -0.81613E-02
 -0.95462E-02 -0.10530E-01 -0.11034E-01 -0.10992E-01 -0.10341E-01 -0.90277E-02
 -0.69868E-02 -0.42046E-02 -0.98945E-03  0.16813E-02  0.22313E-02 -0.69356E-03
 -0.70646E-02 -0.14949E-01 -0.15253E-03  0.47583E-03  0.42278E-03 -0.19073E-03
 -0.10280E-02 -0.18443E-02 -0.25912E-02 -0.32870E-02 -0.39047E-02 -0.44276E-02
 -0.49377E-02 -0.55458E-02 -0.62236E-02 -0.67699E-02 -0.69727E-02 -0.67383E-02
 -0.59670E-02 -0.43070E-02 -0.11962E-02  0.36327E-02  0.95729E-02  0.15138E-01
  0.18721E-01  0.19539E-01  0.17980E-01  0.15103E-01  0.11855E-01  0.86731E-02
  0.56272E-02  0.27335E-02  0.72258E-04 -0.23042E-02 -0.44451E-02 -0.64373E-02
 -0.82911E-02 -0.99154E-02 -0.11187E-01 -0.12008E-01 -0.12295E-01 -0.11962E-01
 -0.10937E-01 -0.91993E-02 -0.67773E-02 -0.38407E-02 -0.94485E-03  0.79644E-03
  0.38794E-04 -0.38978E-02 -0.10179E-01 -0.16484E-01 -0.70781E-03 -0.51781E-03
 -0.81398E-03 -0.13796E-02 -0.19939E-02 -0.25951E-02 -0.32100E-02 -0.38229E-02
 -0.43827E-02 -0.49069E-02 -0.54912E-02 -0.61837E-02 -0.68833E-02 -0.73987E-02
 -0.75895E-02 -0.73930E-02 -0.66731E-02 -0.50828E-02 -0.22037E-02  0.20278E-02
  0.69623E-02  0.11366E-01  0.14049E-01  0.14510E-01  0.13089E-01  0.10570E-01
  0.76718E-02  0.48105E-02  0.21552E-02 -0.24591E-03 -0.24183E-02 -0.44469E-02
 -0.64173E-02 -0.83352E-02 -0.10105E-01 -0.11588E-01 -0.12661E-01 -0.13227E-01
 -0.13177E-01 -0.12412E-01 -0.10896E-01 -0.86870E-02 -0.59390E-02 -0.29817E-02
 -0.48037E-03  0.57572E-03 -0.67650E-03 -0.42447E-02 -0.88862E-02 -0.12551E-01
 -0.13666E-02 -0.14710E-02 -0.18276E-02 -0.22628E-02 -0.27137E-02 -0.32204E-02
 -0.37941E-02 -0.43745E-02 -0.49233E-02 -0.54942E-02 -0.61676E-02 -0.69340E-02
 -0.76696E-02 -0.82191E-02 -0.84774E-02 -0.83698E-02 -0.77508E-02 -0.63582E-02
 -0.39561E-02 -0.62610E-03  0.30498E-02  0.61627E-02  0.79409E-02  0.81405E-02
  0.70597E-02  0.52397E-02  0.31536E-02  0.10791E-02 -0.88060E-03 -0.27396E-02
 -0.45719E-02 -0.64411E-02 -0.83373E-02 -0.10163E-01 -0.11774E-01 -0.13032E-01
 -0.13815E-01 -0.13999E-01 -0.13463E-01 -0.12138E-01 -0.10058E-01 -0.73672E-02
 -0.43141E-02 -0.13049E-02  0.10331E-02  0.19832E-02  0.11539E-02 -0.10829E-02
 -0.35749E-02 -0.49541E-02 -0.19892E-02 -0.22289E-02 -0.25580E-02 -0.29060E-02
 -0.33131E-02 -0.38242E-02 -0.43984E-02 -0.49660E-02 -0.55332E-02 -0.61800E-02
 -0.69569E-02 -0.78124E-02 -0.86179E-02 -0.92405E-02 -0.95835E-02 -0.95673E-02
 -0.90783E-02 -0.79596E-02 -0.61182E-02 -0.37015E-02 -0.11648E-02  0.90247E-03
  0.20800E-02  0.22961E-02  0.17602E-02  0.76546E-03 -0.45912E-03 -0.17952E-02
 -0.32228E-02 -0.47772E-02 -0.64825E-02 -0.82971E-02 -0.10110E-01 -0.11777E-01
 -0.13153E-01 -0.14097E-01 -0.14462E-01 -0.14114E-01 -0.12963E-01 -0.11002E-01
 -0.83321E-02 -0.51508E-02 -0.17515E-02  0.14517E-02  0.39400E-02  0.52568E-02
  0.52946E-02  0.44727E-02  0.35796E-02  0.33264E-02 -0.25086E-02 -0.27981E-02
 -0.31090E-02 -0.34549E-02 -0.39008E-02 -0.44473E-02 -0.50230E-02 -0.55921E-02
 -0.62138E-02 -0.69719E-02 -0.78722E-02 -0.88226E-02 -0.96925E-02 -0.10370E-01
 -0.10778E-01 -0.10851E-01 -0.10504E-01 -0.96461E-02 -0.82657E-02 -0.65275E-02
 -0.47580E-02 -0.32949E-02 -0.23312E-02 -0.18852E-02 -0.18808E-02 -0.22320E-02
 -0.28795E-02 -0.38021E-02 -0.50069E-02 -0.64865E-02 -0.81699E-02 -0.99237E-02
 -0.11595E-01 -0.13038E-01 -0.14100E-01 -0.14612E-01 -0.14417E-01 -0.13412E-01
 -0.11571E-01 -0.89454E-02 -0.56728E-02 -0.19797E-02  0.18164E-02  0.53170E-02
  0.81041E-02  0.98818E-02  0.10635E-01  0.10664E-01  0.10422E-01  0.10240E-01
 -0.29524E-02 -0.32729E-02 -0.36029E-02 -0.39977E-02 -0.45033E-02 -0.50788E-02
 -0.56595E-02 -0.62639E-02 -0.69851E-02 -0.78787E-02 -0.88899E-02 -0.98941E-02
 -0.10778E-01 -0.11474E-01 -0.11933E-01 -0.12087E-01 -0.11845E-01 -0.11142E-01
 -0.10017E-01 -0.86376E-02 -0.72285E-02 -0.59717E-02 -0.49680E-02 -0.42717E-02
 -0.39253E-02 -0.39576E-02 -0.43813E-02 -0.52013E-02 -0.64007E-02 -0.79015E-02
 -0.95568E-02 -0.11197E-01 -0.12671E-01 -0.13823E-01 -0.14468E-01 -0.14420E-01
 -0.13552E-01 -0.11825E-01 -0.92647E-02 -0.59585E-02 -0.20743E-02  0.21237E-02
  0.62917E-02  0.10048E-01  0.13041E-01  0.15047E-01  0.16054E-01  0.16261E-01
  0.15942E-01  0.15302E-01 -0.33808E-02 -0.37299E-02 -0.40971E-02 -0.45536E-02
 -0.51130E-02 -0.57107E-02 -0.63128E-02 -0.69873E-02 -0.78292E-02 -0.88372E-02
 -0.98996E-02 -0.10890E-01 -0.11743E-01 -0.12438E-01 -0.12928E-01 -0.13109E-01
 -0.12872E-01 -0.12179E-01 -0.11114E-01 -0.98359E-02 -0.85005E-02 -0.72267E-02
 -0.61194E-02 -0.52913E-02 -0.48417E-02 -0.48289E-02 -0.52743E-02 -0.61680E-02
 -0.74439E-02 -0.89616E-02 -0.10542E-01 -0.12021E-01 -0.13239E-01 -0.14009E-01
 -0.14123E-01 -0.13418E-01 -0.11828E-01 -0.93598E-02 -0.60706E-02 -0.20839E-02
  0.23751E-02  0.69897E-02  0.11398E-01  0.15239E-01  0.18201E-01  0.20096E-01
  0.20927E-01  0.20856E-01  0.20106E-01  0.18852E-01 -0.38253E-02 -0.41952E-02
 -0.46060E-02 -0.51232E-02 -0.57198E-02 -0.63254E-02 -0.69519E-02 -0.77021E-02
 -0.86401E-02 -0.96993E-02 -0.10740E-01 -0.11672E-01 -0.12479E-01 -0.13150E-01
 -0.13599E-01 -0.13694E-01 -0.13337E-01 -0.12540E-01 -0.11410E-01 -0.10084E-01
 -0.86868E-02 -0.73419E-02 -0.61918E-02 -0.53779E-02 -0.50003E-02 -0.51068E-02
 -0.57023E-02 -0.67383E-02 -0.80925E-02 -0.95883E-02 -0.11048E-01 -0.12310E-01
 -0.13191E-01 -0.13476E-01 -0.12974E-01 -0.11579E-01 -0.92696E-02 -0.60728E-02
 -0.20755E-02  0.25295E-02  0.74406E-02  0.12302E-01  0.16755E-01  0.20457E-01
  0.23132E-01  0.24637E-01  0.25013E-01  0.24435E-01  0.23109E-01  0.21206E-01
 -0.42844E-02 -0.46738E-02 -0.51329E-02 -0.56894E-02 -0.62777E-02 -0.68528E-02
 -0.74848E-02 -0.82853E-02 -0.92635E-02 -0.10303E-01 -0.11275E-01 -0.12134E-01
 -0.12876E-01 -0.13452E-01 -0.13742E-01 -0.13623E-01 -0.13052E-01 -0.12080E-01
 -0.10815E-01 -0.93773E-02 -0.78997E-02 -0.65360E-02 -0.54490E-02 -0.47712E-02
 -0.45811E-02 -0.49049E-02 -0.57125E-02 -0.68996E-02 -0.82976E-02 -0.97226E-02
 -0.11007E-01 -0.11978E-01 -0.12428E-01 -0.12153E-01 -0.11014E-01 -0.89547E-02
 -0.59650E-02 -0.20876E-02  0.25280E-02  0.76009E-02  0.12772E-01  0.17672E-01
  0.21954E-01  0.25296E-01  0.27465E-01  0.28388E-01  0.28157E-01  0.26960E-01
  0.24998E-01  0.22458E-01 -0.47503E-02 -0.51639E-02 -0.56513E-02 -0.61839E-02
 -0.66905E-02 -0.71895E-02 -0.78009E-02 -0.86102E-02 -0.95648E-02 -0.10531E-01
 -0.11412E-01 -0.12179E-01 -0.12797E-01 -0.13172E-01 -0.13185E-01 -0.12765E-01
 -0.11922E-01 -0.10727E-01 -0.92914E-02 -0.77464E-02 -0.62496E-02 -0.49709E-02
 -0.40612E-02 -0.36255E-02 -0.37145E-02 -0.43181E-02 -0.53501E-02 -0.66512E-02
 -0.80329E-02 -0.93226E-02 -0.10358E-01 -0.10955E-01 -0.10913E-01 -0.10074E-01
 -0.83451E-02 -0.56830E-02 -0.20815E-02  0.23708E-02  0.74388E-02  0.12771E-01
  0.17984E-01  0.22708E-01  0.26601E-01  0.29377E-01  0.30876E-01  0.31105E-01
  0.30199E-01  0.28351E-01  0.25774E-01  0.22689E-01 -0.52174E-02 -0.56374E-02
 -0.60858E-02 -0.64973E-02 -0.68454E-02 -0.72273E-02 -0.77830E-02 -0.85496E-02
 -0.94319E-02 -0.10302E-01 -0.11078E-01 -0.11709E-01 -0.12114E-01 -0.12190E-01
 -0.11855E-01 -0.11088E-01 -0.99378E-02 -0.85013E-02 -0.69123E-02 -0.53298E-02
 -0.39233E-02 -0.28500E-02 -0.22306E-02 -0.21338E-02 -0.25670E-02 -0.34625E-02
 -0.46742E-02 -0.60100E-02 -0.72855E-02 -0.83466E-02 -0.90453E-02 -0.92174E-02
 -0.87042E-02 -0.73827E-02 -0.51638E-02 -0.19897E-02  0.21167E-02  0.69859E-02
  0.12301E-01  0.17673E-01  0.22709E-01  0.27037E-01  0.30335E-01  0.32387E-01
  0.33131E-01  0.32642E-01  0.31072E-01  0.28624E-01  0.25531E-01  0.22046E-01
 -0.56672E-02 -0.60291E-02 -0.63247E-02 -0.64943E-02 -0.65929E-02 -0.67928E-02
 -0.72398E-02 -0.79336E-02 -0.87521E-02 -0.95514E-02 -0.10217E-01 -0.10653E-01
 -0.10765E-01 -0.10478E-01 -0.97574E-02 -0.86277E-02 -0.71760E-02 -0.55408E-02
 -0.38875E-02 -0.23856E-02 -0.11943E-02 -0.44425E-03 -0.21578E-03 -0.52377E-03
 -0.13117E-02 -0.24492E-02 -0.37439E-02 -0.49878E-02 -0.60133E-02 -0.67122E-02
 -0.70043E-02 -0.67949E-02 -0.59555E-02 -0.43288E-02 -0.17638E-02  0.18071E-02
  0.62859E-02  0.11396E-01  0.16755E-01  0.21956E-01  0.26604E-01  0.30338E-01
  0.32893E-01  0.34156E-01  0.34154E-01  0.32993E-01  0.30832E-01  0.27884E-01
  0.24406E-01  0.20664E-01 -0.60544E-02 -0.62379E-02 -0.62104E-02 -0.59626E-02
 -0.56670E-02 -0.55938E-02 -0.59173E-02 -0.66061E-02 -0.74690E-02 -0.82711E-02
 -0.88215E-02 -0.90026E-02 -0.87584E-02 -0.80702E-02 -0.69557E-02 -0.54899E-02
 -0.38123E-02 -0.20960E-02 -0.51236E-03  0.77883E-03  0.16342E-02  0.19563E-02
  0.17253E-02  0.99946E-03 -0.98886E-04 -0.13817E-02 -0.26061E-02 -0.35470E-02
 -0.40975E-02 -0.42944E-02 -0.42212E-02 -0.38568E-02 -0.29969E-02 -0.13187E-02
  0.14401E-02  0.53088E-02  0.10044E-01  0.15239E-01  0.20461E-01  0.25302E-01
  0.29383E-01  0.32393E-01  0.34160E-01  0.34667E-01  0.33988E-01  0.32236E-01
  0.29575E-01  0.26244E-01  0.22516E-01  0.18646E-01 -0.63043E-02 -0.61146E-02
 -0.55093E-02 -0.46005E-02 -0.37562E-02 -0.33990E-02 -0.37325E-02 -0.46227E-02
 -0.56974E-02 -0.65593E-02 -0.69561E-02 -0.68148E-02 -0.61647E-02 -0.50620E-02
 -0.35883E-02 -0.18806E-02 -0.11659E-03  0.15319E-02  0.29100E-02  0.38644E-02